<?xml version="1.0" encoding="UTF-8"?>

<!-- generated on Qua 03 Abr 2019 16:45:16 -03 by Eclipse SUMO GUI Version 1.1.0
<configuration xmlns:xsi="http://www.w3.org/2001/XMLSchema-instance" xsi:noNamespaceSchemaLocation="http://sumo.dlr.de/xsd/sumoConfiguration.xsd">

    <input>
        <net-file value="sumo/netspider.net.xml"/>
        <route-files value="sumo/tripss.trips.xml"/>
    </input>

    <output>
        <emission-output value="sumo/spider.emission.xml"/>
    </output>

    <time>
        <begin value="0"/>
        <end value="10000"/>
    </time>

    <traci_server>
        <remote-port value="42617"/>
    </traci_server>

</configuration>
-->

<emission-export xmlns:xsi="http://www.w3.org/2001/XMLSchema-instance" xsi:noNamespaceSchemaLocation="http://sumo.dlr.de/xsd/emission_file.xsd">
    <timestep time="0.00">
        <vehicle id="0" eclass="HBEFA3/PC_G_EU4" CO2="2624.72" CO="164.78" HC="0.81" NOx="1.20" PMx="0.07" fuel="1.13" electricity="0.00" noise="55.94" route="!0!var#1" type="DEFAULT_VEHTYPE" waiting="0.00" lane="1/10to1/11_0" pos="5.10" speed="0.00" angle="90.00" x="2951.03" y="1983.77"/>
        <vehicle id="1" eclass="HBEFA3/PC_G_EU4" CO2="2624.72" CO="164.78" HC="0.81" NOx="1.20" PMx="0.07" fuel="1.13" electricity="0.00" noise="55.94" route="!1!var#1" type="DEFAULT_VEHTYPE" waiting="0.00" lane="4/9to5/9_0" pos="5.10" speed="0.00" angle="263.08" x="2039.50" y="2879.20"/>
    </timestep>
    <timestep time="1.00">
        <vehicle id="0" eclass="HBEFA3/PC_G_EU4" CO2="2995.77" CO="147.80" HC="0.74" NOx="1.34" PMx="0.07" fuel="1.29" electricity="0.00" noise="62.83" route="!0!var#1" type="DEFAULT_VEHTYPE" waiting="0.00" lane="1/10to1/11_0" pos="6.54" speed="1.44" angle="90.00" x="2952.47" y="1983.77"/>
        <vehicle id="1" eclass="HBEFA3/PC_G_EU4" CO2="3159.79" CO="147.38" HC="0.74" NOx="1.41" PMx="0.07" fuel="1.36" electricity="0.00" noise="63.95" route="!1!var#1" type="DEFAULT_VEHTYPE" waiting="0.00" lane="4/9to5/9_0" pos="6.77" speed="1.67" angle="263.08" x="2037.84" y="2878.99"/>
        <vehicle id="10" eclass="HBEFA3/PC_G_EU4" CO2="2624.72" CO="164.78" HC="0.81" NOx="1.20" PMx="0.07" fuel="1.13" electricity="0.00" noise="55.94" route="!10!var#1" type="DEFAULT_VEHTYPE" waiting="0.00" lane="7/12to8/12_0" pos="5.10" speed="0.00" angle="180.00" x="775.10" y="2261.85"/>
        <vehicle id="11" eclass="HBEFA3/PC_G_EU4" CO2="2624.72" CO="164.78" HC="0.81" NOx="1.20" PMx="0.07" fuel="1.13" electricity="0.00" noise="55.94" route="!11!var#1" type="DEFAULT_VEHTYPE" waiting="0.00" lane="3/1to3/2_0" pos="5.10" speed="0.00" angle="34.62" x="2005.25" y="2074.31"/>
        <vehicle id="12" eclass="HBEFA3/PC_G_EU4" CO2="2624.72" CO="164.78" HC="0.81" NOx="1.20" PMx="0.07" fuel="1.13" electricity="0.00" noise="55.94" route="!12!var#1" type="DEFAULT_VEHTYPE" waiting="0.00" lane="10/6to10/5_0" pos="5.10" speed="0.00" angle="20.77" x="1734.48" y="1433.87"/>
        <vehicle id="13" eclass="HBEFA3/PC_G_EU4" CO2="2624.72" CO="164.78" HC="0.81" NOx="1.20" PMx="0.07" fuel="1.13" electricity="0.00" noise="55.94" route="!13!var#1" type="DEFAULT_VEHTYPE" waiting="0.00" lane="4/6to4/7_0" pos="5.10" speed="0.00" angle="6.93" x="2016.94" y="2589.92"/>
        <vehicle id="14" eclass="HBEFA3/PC_G_EU4" CO2="2624.72" CO="164.78" HC="0.81" NOx="1.20" PMx="0.07" fuel="1.13" electricity="0.00" noise="55.94" route="!14!var#1" type="DEFAULT_VEHTYPE" waiting="0.00" lane="10/10to10/11_0" pos="5.10" speed="0.00" angle="200.77" x="1582.49" y="1042.43"/>
        <vehicle id="15" eclass="HBEFA3/PC_G_EU4" CO2="2624.72" CO="164.78" HC="0.81" NOx="1.20" PMx="0.07" fuel="1.13" electricity="0.00" noise="55.94" route="!15!var#1" type="DEFAULT_VEHTYPE" waiting="0.00" lane="9/9to8/9_0" pos="5.10" speed="0.00" angle="332.31" x="1264.69" y="1398.90"/>
        <vehicle id="16" eclass="HBEFA3/PC_G_EU4" CO2="2624.72" CO="164.78" HC="0.81" NOx="1.20" PMx="0.07" fuel="1.13" electricity="0.00" noise="55.94" route="!16!var#1" type="DEFAULT_VEHTYPE" waiting="0.00" lane="13/18to1/18_0" pos="5.10" speed="0.00" angle="13.85" x="3539.88" y="1158.96"/>
        <vehicle id="17" eclass="HBEFA3/PC_G_EU4" CO2="2624.72" CO="164.78" HC="0.81" NOx="1.20" PMx="0.07" fuel="1.13" electricity="0.00" noise="55.94" route="!17!var#1" type="DEFAULT_VEHTYPE" waiting="0.00" lane="1/14to1/13_0" pos="5.10" speed="0.00" angle="270.00" x="3331.14" y="1987.07"/>
        <vehicle id="18" eclass="HBEFA3/PC_G_EU4" CO2="2624.72" CO="164.78" HC="0.81" NOx="1.20" PMx="0.07" fuel="1.13" electricity="0.00" noise="55.94" route="!18!var#1" type="DEFAULT_VEHTYPE" waiting="0.00" lane="10/18to10/17_0" pos="5.10" speed="0.00" angle="20.77" x="1308.95" y="311.85"/>
        <vehicle id="19" eclass="HBEFA3/PC_G_EU4" CO2="2624.72" CO="164.78" HC="0.81" NOx="1.20" PMx="0.07" fuel="1.13" electricity="0.00" noise="55.94" route="!19!var#1" type="DEFAULT_VEHTYPE" waiting="0.00" lane="4/15to4/14_0" pos="5.10" speed="0.00" angle="186.93" x="2119.76" y="3464.01"/>
        <vehicle id="2" eclass="HBEFA3/PC_G_EU4" CO2="2624.72" CO="164.78" HC="0.81" NOx="1.20" PMx="0.07" fuel="1.13" electricity="0.00" noise="55.94" route="!2!var#1" type="DEFAULT_VEHTYPE" waiting="0.00" lane="10/19to11/19_0" pos="5.10" speed="0.00" angle="96.92" x="1278.60" y="205.96"/>
        <vehicle id="20" eclass="HBEFA3/PC_G_EU4" CO2="2624.72" CO="164.78" HC="0.81" NOx="1.20" PMx="0.07" fuel="1.13" electricity="0.00" noise="55.94" route="!20!var#1" type="DEFAULT_VEHTYPE" waiting="0.00" lane="7/16to7/17_0" pos="5.10" speed="0.00" angle="283.85" x="379.89" y="2372.11"/>
        <vehicle id="21" eclass="HBEFA3/PC_G_EU4" CO2="2624.72" CO="164.78" HC="0.81" NOx="1.20" PMx="0.07" fuel="1.13" electricity="0.00" noise="55.94" route="!21!var#1" type="DEFAULT_VEHTYPE" waiting="0.00" lane="9/2to10/2_0" pos="5.10" speed="0.00" angle="124.61" x="1800.09" y="1845.33"/>
        <vehicle id="22" eclass="HBEFA3/PC_G_EU4" CO2="2624.72" CO="164.78" HC="0.81" NOx="1.20" PMx="0.07" fuel="1.13" electricity="0.00" noise="55.94" route="!22!var#1" type="DEFAULT_VEHTYPE" waiting="0.00" lane="4/17to4/16_0" pos="5.10" speed="0.00" angle="186.93" x="2143.87" y="3662.55"/>
        <vehicle id="23" eclass="HBEFA3/PC_G_EU4" CO2="2624.72" CO="164.78" HC="0.81" NOx="1.20" PMx="0.07" fuel="1.13" electricity="0.00" noise="55.94" route="!23!var#1" type="DEFAULT_VEHTYPE" waiting="0.00" lane="7/14to7/13_0" pos="5.10" speed="0.00" angle="103.85" x="592.60" y="2316.29"/>
        <vehicle id="24" eclass="HBEFA3/PC_G_EU4" CO2="2624.72" CO="164.78" HC="0.81" NOx="1.20" PMx="0.07" fuel="1.13" electricity="0.00" noise="55.94" route="!24!var#1" type="DEFAULT_VEHTYPE" waiting="0.00" lane="5/18to6/18_0" pos="5.10" speed="0.00" angle="235.38" x="1293.81" y="3663.70"/>
        <vehicle id="25" eclass="HBEFA3/PC_G_EU4" CO2="2624.72" CO="164.78" HC="0.81" NOx="1.20" PMx="0.07" fuel="1.13" electricity="0.00" noise="55.94" route="!25!var#1" type="DEFAULT_VEHTYPE" waiting="0.00" lane="6/5to7/5_0" pos="5.10" speed="0.00" angle="207.69" x="1561.17" y="2308.22"/>
        <vehicle id="26" eclass="HBEFA3/PC_G_EU4" CO2="2624.72" CO="164.78" HC="0.81" NOx="1.20" PMx="0.07" fuel="1.13" electricity="0.00" noise="55.94" route="!26!var#1" type="DEFAULT_VEHTYPE" waiting="0.00" lane="8/2to8/1_0" pos="5.10" speed="0.00" angle="76.15" x="1758.52" y="1938.52"/>
        <vehicle id="27" eclass="HBEFA3/PC_G_EU4" CO2="2624.72" CO="164.78" HC="0.81" NOx="1.20" PMx="0.07" fuel="1.13" electricity="0.00" noise="55.94" route="!27!var#1" type="DEFAULT_VEHTYPE" waiting="0.00" lane="11/5to11/6_0" pos="5.10" speed="0.00" angle="173.07" x="2001.61" y="1479.79"/>
        <vehicle id="28" eclass="HBEFA3/PC_G_EU4" CO2="2624.72" CO="164.78" HC="0.81" NOx="1.20" PMx="0.07" fuel="1.13" electricity="0.00" noise="55.94" route="!28!var#1" type="DEFAULT_VEHTYPE" waiting="0.00" lane="4/5to4/4_0" pos="5.10" speed="0.00" angle="186.92" x="1999.22" y="2471.30"/>
        <vehicle id="29" eclass="HBEFA3/PC_G_EU4" CO2="2624.72" CO="164.78" HC="0.81" NOx="1.20" PMx="0.07" fuel="1.13" electricity="0.00" noise="55.94" route="!29!var#1" type="DEFAULT_VEHTYPE" waiting="0.00" lane="6/3to5/3_0" pos="5.10" speed="0.00" angle="55.38" x="1727.12" y="2189.11"/>
        <vehicle id="3" eclass="HBEFA3/PC_G_EU4" CO2="2624.72" CO="164.78" HC="0.81" NOx="1.20" PMx="0.07" fuel="1.13" electricity="0.00" noise="55.94" route="!3!var#1" type="DEFAULT_VEHTYPE" waiting="0.00" lane="2/15to2/16_0" pos="5.10" speed="0.00" angle="62.31" x="3278.94" y="2685.29"/>
        <vehicle id="30" eclass="HBEFA3/PC_G_EU4" CO2="2624.72" CO="164.78" HC="0.81" NOx="1.20" PMx="0.07" fuel="1.13" electricity="0.00" noise="55.94" route="!30!var#1" type="DEFAULT_VEHTYPE" waiting="0.00" lane="3/19to3/18_0" pos="5.10" speed="0.00" angle="214.62" x="3013.74" y="3541.18"/>
        <vehicle id="31" eclass="HBEFA3/PC_G_EU4" CO2="2624.72" CO="164.78" HC="0.81" NOx="1.20" PMx="0.07" fuel="1.13" electricity="0.00" noise="55.94" route="!31!var#1" type="DEFAULT_VEHTYPE" waiting="0.00" lane="6/11to7/11_0" pos="5.10" speed="0.00" angle="207.69" x="1112.07" y="2706.10"/>
        <vehicle id="32" eclass="HBEFA3/PC_G_EU4" CO2="2624.72" CO="164.78" HC="0.81" NOx="1.20" PMx="0.07" fuel="1.13" electricity="0.00" noise="55.94" route="!32!var#1" type="DEFAULT_VEHTYPE" waiting="0.00" lane="2/5to2/6_0" pos="5.10" speed="0.00" angle="62.31" x="2393.48" y="2220.57"/>
        <vehicle id="33" eclass="HBEFA3/PC_G_EU4" CO2="2624.72" CO="164.78" HC="0.81" NOx="1.20" PMx="0.07" fuel="1.13" electricity="0.00" noise="55.94" route="!33!var#1" type="DEFAULT_VEHTYPE" waiting="0.00" lane="9/18to8/18_0" pos="5.10" speed="0.00" angle="332.31" x="591.03" y="802.09"/>
        <vehicle id="34" eclass="HBEFA3/PC_G_EU4" CO2="2624.72" CO="164.78" HC="0.81" NOx="1.20" PMx="0.07" fuel="1.13" electricity="0.00" noise="55.94" route="!34!var#1" type="DEFAULT_VEHTYPE" waiting="0.00" lane="1to3/1_0" pos="5.10" speed="0.00" angle="34.62" x="1954.48" y="2000.77"/>
        <vehicle id="35" eclass="HBEFA3/PC_G_EU4" CO2="2624.72" CO="164.78" HC="0.81" NOx="1.20" PMx="0.07" fuel="1.13" electricity="0.00" noise="55.94" route="!35!var#1" type="DEFAULT_VEHTYPE" waiting="0.00" lane="7/7to7/8_0" pos="5.10" speed="0.00" angle="283.85" x="1253.74" y="2156.73"/>
        <vehicle id="36" eclass="HBEFA3/PC_G_EU4" CO2="2624.72" CO="164.78" HC="0.81" NOx="1.20" PMx="0.07" fuel="1.13" electricity="0.00" noise="55.94" route="!36!var#1" type="DEFAULT_VEHTYPE" waiting="0.00" lane="1/1to2/1_0" pos="5.10" speed="0.00" angle="346.15" x="2040.91" y="1996.25"/>
        <vehicle id="37" eclass="HBEFA3/PC_G_EU4" CO2="2624.72" CO="164.78" HC="0.81" NOx="1.20" PMx="0.07" fuel="1.13" electricity="0.00" noise="55.94" route="!37!var#1" type="DEFAULT_VEHTYPE" waiting="0.00" lane="2/2to3/2_0" pos="5.10" speed="0.00" angle="318.47" x="2113.08" y="2087.50"/>
        <vehicle id="38" eclass="HBEFA3/PC_G_EU4" CO2="2624.72" CO="164.78" HC="0.81" NOx="1.20" PMx="0.07" fuel="1.13" electricity="0.00" noise="55.94" route="!38!var#1" type="DEFAULT_VEHTYPE" waiting="0.00" lane="8/10to8/9_0" pos="5.10" speed="0.00" angle="76.15" x="981.77" y="1747.07"/>
        <vehicle id="39" eclass="HBEFA3/PC_G_EU4" CO2="2624.72" CO="164.78" HC="0.81" NOx="1.20" PMx="0.07" fuel="1.13" electricity="0.00" noise="55.94" route="!39!var#1" type="DEFAULT_VEHTYPE" waiting="0.00" lane="11/7to11/8_0" pos="5.10" speed="0.00" angle="173.08" x="2025.72" y="1281.25"/>
        <vehicle id="4" eclass="HBEFA3/PC_G_EU4" CO2="2624.72" CO="164.78" HC="0.81" NOx="1.20" PMx="0.07" fuel="1.13" electricity="0.00" noise="55.94" route="!4!var#1" type="DEFAULT_VEHTYPE" waiting="0.00" lane="9/4to10/4_0" pos="5.10" speed="0.00" angle="124.61" x="1650.39" y="1712.70"/>
        <vehicle id="5" eclass="HBEFA3/PC_G_EU4" CO2="2624.72" CO="164.78" HC="0.81" NOx="1.20" PMx="0.07" fuel="1.13" electricity="0.00" noise="55.94" route="!5!var#1" type="DEFAULT_VEHTYPE" waiting="0.00" lane="11/18to11/17_0" pos="5.10" speed="0.00" angle="353.07" x="2159.20" y="209.41"/>
        <vehicle id="6" eclass="HBEFA3/PC_G_EU4" CO2="2624.72" CO="164.78" HC="0.81" NOx="1.20" PMx="0.07" fuel="1.13" electricity="0.00" noise="55.94" route="!6!var#1" type="DEFAULT_VEHTYPE" waiting="0.00" lane="6/9to6/8_0" pos="5.10" speed="0.00" angle="131.54" x="1275.18" y="2573.87"/>
        <vehicle id="7" eclass="HBEFA3/PC_G_EU4" CO2="2624.72" CO="164.78" HC="0.81" NOx="1.20" PMx="0.07" fuel="1.13" electricity="0.00" noise="55.94" route="!7!var#1" type="DEFAULT_VEHTYPE" waiting="0.00" lane="7/5to6/5_0" pos="5.10" speed="0.00" angle="27.69" x="1462.87" y="2113.83"/>
        <vehicle id="8" eclass="HBEFA3/PC_G_EU4" CO2="2624.72" CO="164.78" HC="0.81" NOx="1.20" PMx="0.07" fuel="1.13" electricity="0.00" noise="55.94" route="!8!var#1" type="DEFAULT_VEHTYPE" waiting="0.00" lane="2/8to2/9_0" pos="5.10" speed="0.00" angle="62.31" x="2659.12" y="2359.99"/>
        <vehicle id="9" eclass="HBEFA3/PC_G_EU4" CO2="2624.72" CO="164.78" HC="0.81" NOx="1.20" PMx="0.07" fuel="1.13" electricity="0.00" noise="55.94" route="!9!var#1" type="DEFAULT_VEHTYPE" waiting="0.00" lane="5/11to4/11_0" pos="5.10" speed="0.00" angle="83.08" x="1562.68" y="3013.59"/>
    </timestep>
    <timestep time="2.00">
        <vehicle id="0" eclass="HBEFA3/PC_G_EU4" CO2="4870.23" CO="147.24" HC="0.79" NOx="2.16" PMx="0.10" fuel="2.09" electricity="0.00" noise="68.69" route="!0!var#1" type="DEFAULT_VEHTYPE" waiting="0.00" lane="1/10to1/11_0" pos="10.52" speed="3.98" angle="90.00" x="2956.45" y="1983.77"/>
        <vehicle id="1" eclass="HBEFA3/PC_G_EU4" CO2="4114.96" CO="136.73" HC="0.72" NOx="1.81" PMx="0.09" fuel="1.77" electricity="0.00" noise="66.01" route="!1!var#1" type="DEFAULT_VEHTYPE" waiting="0.00" lane="4/9to5/9_0" pos="10.41" speed="3.63" angle="263.08" x="2034.23" y="2878.56"/>
        <vehicle id="10" eclass="HBEFA3/PC_G_EU4" CO2="3647.02" CO="148.84" HC="0.76" NOx="1.63" PMx="0.08" fuel="1.57" electricity="0.00" noise="66.50" route="!10!var#1" type="DEFAULT_VEHTYPE" waiting="0.00" lane="7/12to8/12_0" pos="7.31" speed="2.21" angle="180.00" x="775.10" y="2259.64"/>
        <vehicle id="11" eclass="HBEFA3/PC_G_EU4" CO2="4027.45" CO="151.46" HC="0.78" NOx="1.80" PMx="0.09" fuel="1.73" electricity="0.00" noise="68.09" route="!11!var#1" type="DEFAULT_VEHTYPE" waiting="0.00" lane="3/1to3/2_0" pos="7.64" speed="2.54" angle="34.62" x="2006.69" y="2076.40"/>
        <vehicle id="12" eclass="HBEFA3/PC_G_EU4" CO2="3127.65" CO="147.41" HC="0.74" NOx="1.40" PMx="0.07" fuel="1.34" electricity="0.00" noise="63.74" route="!12!var#1" type="DEFAULT_VEHTYPE" waiting="0.00" lane="10/6to10/5_0" pos="6.73" speed="1.63" angle="20.77" x="1735.06" y="1435.39"/>
        <vehicle id="13" eclass="HBEFA3/PC_G_EU4" CO2="2956.57" CO="148.03" HC="0.74" NOx="1.32" PMx="0.07" fuel="1.27" electricity="0.00" noise="62.53" route="!13!var#1" type="DEFAULT_VEHTYPE" waiting="0.00" lane="4/6to4/7_0" pos="6.48" speed="1.38" angle="6.93" x="2017.11" y="2591.29"/>
        <vehicle id="14" eclass="HBEFA3/PC_G_EU4" CO2="3129.46" CO="147.41" HC="0.74" NOx="1.40" PMx="0.07" fuel="1.35" electricity="0.00" noise="63.75" route="!14!var#1" type="DEFAULT_VEHTYPE" waiting="0.00" lane="10/10to10/11_0" pos="6.73" speed="1.63" angle="200.77" x="1581.91" y="1040.90"/>
        <vehicle id="15" eclass="HBEFA3/PC_G_EU4" CO2="2936.61" CO="148.16" HC="0.74" NOx="1.31" PMx="0.07" fuel="1.26" electricity="0.00" noise="62.38" route="!15!var#1" type="DEFAULT_VEHTYPE" waiting="0.00" lane="9/9to8/9_0" pos="6.45" speed="1.35" angle="332.31" x="1264.06" y="1400.09"/>
        <vehicle id="16" eclass="HBEFA3/PC_G_EU4" CO2="3450.90" CO="147.91" HC="0.75" NOx="1.54" PMx="0.08" fuel="1.48" electricity="0.00" noise="65.57" route="!16!var#1" type="DEFAULT_VEHTYPE" waiting="0.00" lane="13/18to1/18_0" pos="7.11" speed="2.01" angle="13.85" x="3540.36" y="1160.92"/>
        <vehicle id="17" eclass="HBEFA3/PC_G_EU4" CO2="3289.13" CO="147.46" HC="0.75" NOx="1.47" PMx="0.07" fuel="1.41" electricity="0.00" noise="64.71" route="!17!var#1" type="DEFAULT_VEHTYPE" waiting="0.00" lane="1/14to1/13_0" pos="6.93" speed="1.83" angle="270.00" x="3329.31" y="1987.07"/>
        <vehicle id="18" eclass="HBEFA3/PC_G_EU4" CO2="3722.83" CO="149.28" HC="0.77" NOx="1.66" PMx="0.08" fuel="1.60" electricity="0.00" noise="66.84" route="!18!var#1" type="DEFAULT_VEHTYPE" waiting="0.00" lane="10/18to10/17_0" pos="7.38" speed="2.28" angle="20.77" x="1309.76" y="313.98"/>
        <vehicle id="19" eclass="HBEFA3/PC_G_EU4" CO2="3377.36" CO="147.66" HC="0.75" NOx="1.51" PMx="0.08" fuel="1.45" electricity="0.00" noise="65.19" route="!19!var#1" type="DEFAULT_VEHTYPE" waiting="0.00" lane="4/15to4/14_0" pos="7.03" speed="1.93" angle="186.93" x="2119.52" y="3462.09"/>
        <vehicle id="2" eclass="HBEFA3/PC_G_EU4" CO2="3339.67" CO="147.56" HC="0.75" NOx="1.49" PMx="0.07" fuel="1.44" electricity="0.00" noise="64.99" route="!2!var#1" type="DEFAULT_VEHTYPE" waiting="0.00" lane="10/19to11/19_0" pos="6.99" speed="1.89" angle="96.92" x="1280.48" y="205.73"/>
        <vehicle id="20" eclass="HBEFA3/PC_G_EU4" CO2="3852.06" CO="150.14" HC="0.77" NOx="1.72" PMx="0.09" fuel="1.66" electricity="0.00" noise="67.39" route="!20!var#1" type="DEFAULT_VEHTYPE" waiting="0.00" lane="7/16to7/17_0" pos="7.49" speed="2.39" angle="283.85" x="377.57" y="2372.68"/>
        <vehicle id="21" eclass="HBEFA3/PC_G_EU4" CO2="3903.24" CO="150.51" HC="0.78" NOx="1.74" PMx="0.09" fuel="1.68" electricity="0.00" noise="67.60" route="!21!var#1" type="DEFAULT_VEHTYPE" waiting="0.00" lane="9/2to10/2_0" pos="7.54" speed="2.44" angle="124.61" x="1802.09" y="1843.95"/>
        <vehicle id="22" eclass="HBEFA3/PC_G_EU4" CO2="3639.75" CO="148.80" HC="0.76" NOx="1.62" PMx="0.08" fuel="1.56" electricity="0.00" noise="66.47" route="!22!var#1" type="DEFAULT_VEHTYPE" waiting="0.00" lane="4/17to4/16_0" pos="7.30" speed="2.20" angle="186.93" x="2143.60" y="3660.36"/>
        <vehicle id="23" eclass="HBEFA3/PC_G_EU4" CO2="3109.02" CO="147.44" HC="0.74" NOx="1.39" PMx="0.07" fuel="1.34" electricity="0.00" noise="63.62" route="!23!var#1" type="DEFAULT_VEHTYPE" waiting="0.00" lane="7/14to7/13_0" pos="6.71" speed="1.61" angle="103.85" x="594.16" y="2315.90"/>
        <vehicle id="24" eclass="HBEFA3/PC_G_EU4" CO2="2998.61" CO="147.79" HC="0.74" NOx="1.34" PMx="0.07" fuel="1.29" electricity="0.00" noise="62.85" route="!24!var#1" type="DEFAULT_VEHTYPE" waiting="0.00" lane="5/18to6/18_0" pos="6.55" speed="1.45" angle="235.38" x="1292.62" y="3662.88"/>
        <vehicle id="25" eclass="HBEFA3/PC_G_EU4" CO2="3738.22" CO="149.38" HC="0.77" NOx="1.67" PMx="0.08" fuel="1.61" electricity="0.00" noise="66.91" route="!25!var#1" type="DEFAULT_VEHTYPE" waiting="0.00" lane="6/5to7/5_0" pos="7.39" speed="2.29" angle="207.69" x="1560.10" y="2306.19"/>
        <vehicle id="26" eclass="HBEFA3/PC_G_EU4" CO2="3606.86" CO="148.62" HC="0.76" NOx="1.61" PMx="0.08" fuel="1.55" electricity="0.00" noise="66.32" route="!26!var#1" type="DEFAULT_VEHTYPE" waiting="0.00" lane="8/2to8/1_0" pos="7.27" speed="2.17" angle="76.15" x="1760.63" y="1939.04"/>
        <vehicle id="27" eclass="HBEFA3/PC_G_EU4" CO2="3199.98" CO="147.37" HC="0.75" NOx="1.43" PMx="0.07" fuel="1.38" electricity="0.00" noise="64.19" route="!27!var#1" type="DEFAULT_VEHTYPE" waiting="0.00" lane="11/5to11/6_0" pos="6.83" speed="1.73" angle="173.07" x="2001.82" y="1478.07"/>
        <vehicle id="28" eclass="HBEFA3/PC_G_EU4" CO2="3241.63" CO="147.40" HC="0.75" NOx="1.45" PMx="0.07" fuel="1.39" electricity="0.00" noise="64.44" route="!28!var#1" type="DEFAULT_VEHTYPE" waiting="0.00" lane="4/5to4/4_0" pos="6.88" speed="1.78" angle="186.92" x="1999.00" y="2469.53"/>
        <vehicle id="29" eclass="HBEFA3/PC_G_EU4" CO2="3340.78" CO="147.57" HC="0.75" NOx="1.49" PMx="0.07" fuel="1.44" electricity="0.00" noise="64.99" route="!29!var#1" type="DEFAULT_VEHTYPE" waiting="0.00" lane="6/3to5/3_0" pos="6.99" speed="1.89" angle="55.38" x="1728.67" y="2190.18"/>
        <vehicle id="3" eclass="HBEFA3/PC_G_EU4" CO2="3698.77" CO="149.14" HC="0.77" NOx="1.65" PMx="0.08" fuel="1.59" electricity="0.00" noise="66.73" route="!3!var#1" type="DEFAULT_VEHTYPE" waiting="0.00" lane="2/15to2/16_0" pos="7.36" speed="2.26" angle="62.31" x="3280.93" y="2686.34"/>
        <vehicle id="30" eclass="HBEFA3/PC_G_EU4" CO2="3189.05" CO="147.37" HC="0.75" NOx="1.42" PMx="0.07" fuel="1.37" electricity="0.00" noise="64.12" route="!30!var#1" type="DEFAULT_VEHTYPE" waiting="0.00" lane="3/19to3/18_0" pos="6.81" speed="1.71" angle="214.62" x="3012.77" y="3539.77"/>
        <vehicle id="31" eclass="HBEFA3/PC_G_EU4" CO2="3520.95" CO="148.20" HC="0.76" NOx="1.57" PMx="0.08" fuel="1.51" electricity="0.00" noise="65.91" route="!31!var#1" type="DEFAULT_VEHTYPE" waiting="0.00" lane="6/11to7/11_0" pos="7.18" speed="2.08" angle="207.69" x="1111.10" y="2704.26"/>
        <vehicle id="32" eclass="HBEFA3/PC_G_EU4" CO2="3008.80" CO="147.74" HC="0.74" NOx="1.35" PMx="0.07" fuel="1.29" electricity="0.00" noise="62.93" route="!32!var#1" type="DEFAULT_VEHTYPE" waiting="0.00" lane="2/5to2/6_0" pos="6.56" speed="1.46" angle="62.31" x="2394.77" y="2221.25"/>
        <vehicle id="33" eclass="HBEFA3/PC_G_EU4" CO2="3897.12" CO="150.46" HC="0.78" NOx="1.74" PMx="0.09" fuel="1.68" electricity="0.00" noise="67.58" route="!33!var#1" type="DEFAULT_VEHTYPE" waiting="0.00" lane="9/18to8/18_0" pos="7.53" speed="2.43" angle="332.31" x="589.90" y="804.24"/>
        <vehicle id="34" eclass="HBEFA3/PC_G_EU4" CO2="3315.69" CO="147.51" HC="0.75" NOx="1.48" PMx="0.07" fuel="1.43" electricity="0.00" noise="64.86" route="!34!var#1" type="DEFAULT_VEHTYPE" waiting="0.00" lane="1to3/1_0" pos="6.96" speed="1.86" angle="34.62" x="1955.54" y="2002.30"/>
        <vehicle id="35" eclass="HBEFA3/PC_G_EU4" CO2="4053.85" CO="151.67" HC="0.79" NOx="1.81" PMx="0.09" fuel="1.74" electricity="0.00" noise="68.20" route="!35!var#1" type="DEFAULT_VEHTYPE" waiting="0.00" lane="7/7to7/8_0" pos="7.66" speed="2.56" angle="283.85" x="1251.25" y="2157.34"/>
        <vehicle id="36" eclass="HBEFA3/PC_G_EU4" CO2="4031.60" CO="151.49" HC="0.78" NOx="1.80" PMx="0.09" fuel="1.73" electricity="0.00" noise="68.11" route="!36!var#1" type="DEFAULT_VEHTYPE" waiting="0.00" lane="1/1to2/1_0" pos="7.64" speed="2.54" angle="346.15" x="2040.30" y="1998.72"/>
        <vehicle id="37" eclass="HBEFA3/PC_G_EU4" CO2="4004.98" CO="151.28" HC="0.78" NOx="1.79" PMx="0.09" fuel="1.72" electricity="0.00" noise="68.01" route="!37!var#1" type="DEFAULT_VEHTYPE" waiting="0.00" lane="2/2to3/2_0" pos="7.62" speed="2.52" angle="318.47" x="2111.41" y="2089.39"/>
        <vehicle id="38" eclass="HBEFA3/PC_G_EU4" CO2="3187.55" CO="147.37" HC="0.75" NOx="1.42" PMx="0.07" fuel="1.37" electricity="0.00" noise="64.12" route="!38!var#1" type="DEFAULT_VEHTYPE" waiting="0.00" lane="8/10to8/9_0" pos="6.81" speed="1.71" angle="76.15" x="983.43" y="1747.48"/>
        <vehicle id="39" eclass="HBEFA3/PC_G_EU4" CO2="3433.62" CO="147.85" HC="0.75" NOx="1.53" PMx="0.08" fuel="1.48" electricity="0.00" noise="65.48" route="!39!var#1" type="DEFAULT_VEHTYPE" waiting="0.00" lane="11/7to11/8_0" pos="7.09" speed="1.99" angle="173.08" x="2025.96" y="1279.27"/>
        <vehicle id="4" eclass="HBEFA3/PC_G_EU4" CO2="3502.05" CO="148.12" HC="0.76" NOx="1.56" PMx="0.08" fuel="1.51" electricity="0.00" noise="65.82" route="!4!var#1" type="DEFAULT_VEHTYPE" waiting="0.00" lane="9/4to10/4_0" pos="7.17" speed="2.07" angle="124.61" x="1652.09" y="1711.53"/>
        <vehicle id="40" eclass="HBEFA3/PC_G_EU4" CO2="2624.72" CO="164.78" HC="0.81" NOx="1.20" PMx="0.07" fuel="1.13" electricity="0.00" noise="55.94" route="!40!var#1" type="DEFAULT_VEHTYPE" waiting="0.00" lane="12/10to12/11_0" pos="5.10" speed="0.00" angle="145.38" x="2513.79" y="1153.97"/>
        <vehicle id="41" eclass="HBEFA3/PC_G_EU4" CO2="2624.72" CO="164.78" HC="0.81" NOx="1.20" PMx="0.07" fuel="1.13" electricity="0.00" noise="55.94" route="!41!var#1" type="DEFAULT_VEHTYPE" waiting="0.00" lane="12/6to13/6_0" pos="5.10" speed="0.00" angle="41.54" x="2291.08" y="1498.58"/>
        <vehicle id="42" eclass="HBEFA3/PC_G_EU4" CO2="2624.72" CO="164.78" HC="0.81" NOx="1.20" PMx="0.07" fuel="1.13" electricity="0.00" noise="55.94" route="!42!var#1" type="DEFAULT_VEHTYPE" waiting="0.00" lane="6/12to7/12_0" pos="5.10" speed="0.00" angle="207.69" x="1037.21" y="2772.41"/>
        <vehicle id="43" eclass="HBEFA3/PC_G_EU4" CO2="2624.72" CO="164.78" HC="0.81" NOx="1.20" PMx="0.07" fuel="1.13" electricity="0.00" noise="55.94" route="!43!var#1" type="DEFAULT_VEHTYPE" waiting="0.00" lane="6/16to6/17_0" pos="5.10" speed="0.00" angle="311.54" x="738.51" y="3053.71"/>
        <vehicle id="44" eclass="HBEFA3/PC_G_EU4" CO2="2624.72" CO="164.78" HC="0.81" NOx="1.20" PMx="0.07" fuel="1.13" electricity="0.00" noise="55.94" route="!44!var#1" type="DEFAULT_VEHTYPE" waiting="0.00" lane="3/16to2/16_0" pos="5.10" speed="0.00" angle="138.46" x="2856.68" y="3293.05"/>
        <vehicle id="45" eclass="HBEFA3/PC_G_EU4" CO2="2624.72" CO="164.78" HC="0.81" NOx="1.20" PMx="0.07" fuel="1.13" electricity="0.00" noise="55.94" route="!45!var#1" type="DEFAULT_VEHTYPE" waiting="0.00" lane="7/14to8/14_0" pos="5.10" speed="0.00" angle="180.00" x="580.92" y="2309.71"/>
        <vehicle id="46" eclass="HBEFA3/PC_G_EU4" CO2="2624.72" CO="164.78" HC="0.81" NOx="1.20" PMx="0.07" fuel="1.13" electricity="0.00" noise="55.94" route="!46!var#1" type="DEFAULT_VEHTYPE" waiting="0.00" lane="10/1to9/1_0" pos="5.10" speed="0.00" angle="304.62" x="1898.51" y="1899.38"/>
        <vehicle id="47" eclass="HBEFA3/PC_G_EU4" CO2="2624.72" CO="164.78" HC="0.81" NOx="1.20" PMx="0.07" fuel="1.13" electricity="0.00" noise="55.94" route="!47!var#1" type="DEFAULT_VEHTYPE" waiting="0.00" lane="6/12to5/12_0" pos="5.10" speed="0.00" angle="55.39" x="1053.46" y="2785.92"/>
        <vehicle id="48" eclass="HBEFA3/PC_G_EU4" CO2="2624.72" CO="164.78" HC="0.81" NOx="1.20" PMx="0.07" fuel="1.13" electricity="0.00" noise="55.94" route="!48!var#1" type="DEFAULT_VEHTYPE" waiting="0.00" lane="12/18to12/17_0" pos="5.10" speed="0.00" angle="325.38" x="2959.65" y="513.83"/>
        <vehicle id="49" eclass="HBEFA3/PC_G_EU4" CO2="2624.72" CO="164.78" HC="0.81" NOx="1.20" PMx="0.07" fuel="1.13" electricity="0.00" noise="55.94" route="!49!var#1" type="DEFAULT_VEHTYPE" waiting="0.00" lane="11/11to10/11_0" pos="5.10" speed="0.00" angle="276.92" x="2064.01" y="896.37"/>
        <vehicle id="5" eclass="HBEFA3/PC_G_EU4" CO2="4092.62" CO="151.99" HC="0.79" NOx="1.83" PMx="0.09" fuel="1.76" electricity="0.00" noise="68.34" route="!5!var#1" type="DEFAULT_VEHTYPE" waiting="0.00" lane="11/18to11/17_0" pos="7.69" speed="2.59" angle="353.07" x="2158.88" y="211.99"/>
        <vehicle id="50" eclass="HBEFA3/PC_G_EU4" CO2="2624.72" CO="164.78" HC="0.81" NOx="1.20" PMx="0.07" fuel="1.13" electricity="0.00" noise="55.94" route="!50!var#1" type="DEFAULT_VEHTYPE" waiting="0.00" lane="1/9to13/9_0" pos="5.10" speed="0.00" angle="193.85" x="2837.71" y="1975.38"/>
        <vehicle id="51" eclass="HBEFA3/PC_G_EU4" CO2="2624.72" CO="164.78" HC="0.81" NOx="1.20" PMx="0.07" fuel="1.13" electricity="0.00" noise="55.94" route="!51!var#1" type="DEFAULT_VEHTYPE" waiting="0.00" lane="3/6to4/6_0" pos="5.10" speed="0.00" angle="290.77" x="2273.26" y="2484.56"/>
        <vehicle id="52" eclass="HBEFA3/PC_G_EU4" CO2="2624.72" CO="164.78" HC="0.81" NOx="1.20" PMx="0.07" fuel="1.13" electricity="0.00" noise="55.94" route="!52!var#1" type="DEFAULT_VEHTYPE" waiting="0.00" lane="6/1to1_0" pos="5.10" speed="0.00" angle="131.54" x="1873.99" y="2043.37"/>
        <vehicle id="53" eclass="HBEFA3/PC_G_EU4" CO2="2624.72" CO="164.78" HC="0.81" NOx="1.20" PMx="0.07" fuel="1.13" electricity="0.00" noise="55.94" route="!53!var#1" type="DEFAULT_VEHTYPE" waiting="0.00" lane="1/4to13/4_0" pos="5.10" speed="0.00" angle="193.84" x="2337.71" y="1975.38"/>
        <vehicle id="54" eclass="HBEFA3/PC_G_EU4" CO2="2624.72" CO="164.78" HC="0.81" NOx="1.20" PMx="0.07" fuel="1.13" electricity="0.00" noise="55.94" route="!54!var#1" type="DEFAULT_VEHTYPE" waiting="0.00" lane="1/15to2/15_0" pos="5.10" speed="0.00" angle="346.15" x="3440.91" y="1996.25"/>
        <vehicle id="55" eclass="HBEFA3/PC_G_EU4" CO2="2624.72" CO="164.78" HC="0.81" NOx="1.20" PMx="0.07" fuel="1.13" electricity="0.00" noise="55.94" route="!55!var#1" type="DEFAULT_VEHTYPE" waiting="0.00" lane="2/10to3/10_0" pos="5.10" speed="0.00" angle="318.46" x="2821.45" y="2459.28"/>
        <vehicle id="56" eclass="HBEFA3/PC_G_EU4" CO2="2624.72" CO="164.78" HC="0.81" NOx="1.20" PMx="0.07" fuel="1.13" electricity="0.00" noise="55.94" route="!56!var#1" type="DEFAULT_VEHTYPE" waiting="0.00" lane="13/10to13/9_0" pos="5.10" speed="0.00" angle="297.69" x="2818.59" y="1527.15"/>
        <vehicle id="57" eclass="HBEFA3/PC_G_EU4" CO2="2624.72" CO="164.78" HC="0.81" NOx="1.20" PMx="0.07" fuel="1.13" electricity="0.00" noise="55.94" route="!57!var#1" type="DEFAULT_VEHTYPE" waiting="0.00" lane="2/17to2/16_0" pos="5.10" speed="0.00" angle="242.31" x="3436.87" y="2771.91"/>
        <vehicle id="58" eclass="HBEFA3/PC_G_EU4" CO2="2624.72" CO="164.78" HC="0.81" NOx="1.20" PMx="0.07" fuel="1.13" electricity="0.00" noise="55.94" route="!58!var#1" type="DEFAULT_VEHTYPE" waiting="0.00" lane="9/15to8/15_0" pos="5.10" speed="0.00" angle="332.31" x="815.58" y="1001.02"/>
        <vehicle id="59" eclass="HBEFA3/PC_G_EU4" CO2="2624.72" CO="164.78" HC="0.81" NOx="1.20" PMx="0.07" fuel="1.13" electricity="0.00" noise="55.94" route="!59!var#1" type="DEFAULT_VEHTYPE" waiting="0.00" lane="2/3to2/4_0" pos="5.10" speed="0.00" angle="62.31" x="2216.39" y="2127.62"/>
        <vehicle id="6" eclass="HBEFA3/PC_G_EU4" CO2="4049.65" CO="151.64" HC="0.79" NOx="1.81" PMx="0.09" fuel="1.74" electricity="0.00" noise="68.18" route="!6!var#1" type="DEFAULT_VEHTYPE" waiting="0.00" lane="6/9to6/8_0" pos="7.66" speed="2.56" angle="131.54" x="1277.09" y="2572.17"/>